ITEM: TIMESTEP
50000
ITEM: NUMBER OF ATOMS
675
ITEM: BOX BOUNDS pp pp pp
0 0.00072
0 0.00072
0 0.00288
ITEM: ATOMS id type x y z vx vy vz fx fy fz omegax omegay omegaz radius 
588 1 5.233724403557e-05 9.982460643640e-06 6.269749232544e-06 2.359289899673e-03 1.667466399641e-02 7.031575460549e-02 -2.134053581075e-10 2.163244062283e-10 -1.083986264404e-10 -1.464971876162e+00 5.402570490203e+01 -1.216133130240e+00 3.750000000000e-05 
429 1 3.280624573233e-04 6.964315706593e-05 7.964958978167e-06 1.335291623749e-03 1.876703083595e-02 3.252474546748e-02 -2.882828890112e-10 -1.396569337309e-11 -1.081769153202e-10 1.276911144791e+01 1.863199573357e+02 1.109115430074e+02 3.750000000000e-05 
424 1 7.804263738449e-05 1.747306706056e-04 2.440129208838e-05 -5.232066522948e-02 6.426780769346e-03 5.699932272324e-02 7.447778006841e-10 1.639241738575e-10 1.380527903155e-10 -1.153349872229e+02 4.600412446227e+02 -1.320621117762e+02 3.750000000000e-05 
138 1 2.778691113056e-04 1.584687180610e-04 2.835583895998e-05 1.209979455051e-02 1.960029869383e-02 2.228877550978e-02 -5.995447140454e-10 -5.997141031911e-11 -1.228919465168e-10 -6.696364867374e+01 6.701297174181e+00 -2.712195408735e+00 3.750000000000e-05 
537 1 6.226194345410e-04 1.250068350618e-04 3.791374443727e-05 9.646411796970e-03 3.469908158275e-02 4.327465326343e-02 -1.339201204448e-10 -4.784784442936e-10 -8.528765890454e-10 1.173491469478e+02 -5.287744837164e+01 -3.083245697526e+01 3.750000000000e-05 
285 1 4.403495568053e-05 2.794424397882e-04 1.040806433967e-05 7.247623618313e-03 -8.015994531628e-03 -1.019717652401e-02 -1.959594324617e-10 1.119987071398e-10 3.654989643136e-10 -2.069452430183e+01 -3.945693495079e+01 4.492956606684e+01 3.750000000000e-05 
281 1 2.157318885414e-04 2.431507163077e-04 2.394928515087e-06 1.449151763139e-02 2.629452237669e-02 1.361382254470e-02 -4.960775187739e-10 -4.220845136730e-10 -1.876305871233e-10 -2.476629348429e+02 2.364190377893e+02 -1.606846043845e+02 3.750000000000e-05 
12 1 1.755163409172e-04 3.588014242475e-04 4.690745834280e-05 -8.299336112569e-03 3.025434047805e-03 -2.278955518167e-02 1.139665700269e-10 -2.531747472723e-10 4.552762630082e-10 -1.952246812394e+02 7.875458181102e+01 -1.939315893631e+02 3.750000000000e-05 
440 1 6.385444348427e-04 3.190520538979e-04 4.934509757926e-06 -4.002106562916e-03 -8.430688181374e-03 -2.444124290531e-02 5.834628314210e-11 1.346982096078e-10 6.632492344756e-10 -6.200262080817e+01 2.526194291678e+01 -2.281409813107e+01 3.750000000000e-05 
364 1 3.079272036476e-05 3.694924740661e-04 4.882777810603e-05 -1.506448803144e-03 -4.276524484377e-03 -4.537340265398e-03 5.431670722020e-11 -6.734283318899e-11 1.899633416745e-10 1.128874863597e+02 -2.923926268848e+01 -1.081270803037e+01 3.750000000000e-05 
202 1 4.713346479620e-04 3.780977160659e-04 4.795283821221e-05 1.113772677898e-02 -1.484427366287e-02 -6.429960808070e-02 -2.826531481848e-10 3.396056490404e-10 6.204247963740e-10 1.844129957620e+01 -1.646373611130e+02 -2.390503366986e+02 3.750000000000e-05 
243 1 2.184496595549e-04 4.285407068671e-04 5.109963051611e-05 -5.619673628243e-03 3.839705143549e-03 -2.780249256021e-02 3.677409780789e-11 -1.041701353387e-10 5.790225324030e-10 -1.110826573587e+01 2.757564118201e+02 6.108194303194e+01 3.750000000000e-05 
269 1 3.320369316648e-04 4.400910211704e-04 2.764539486497e-05 -1.165391605780e-02 3.279959969579e-03 -5.814821158154e-02 8.351648800503e-11 -3.123071473769e-11 6.764306832692e-10 -1.832970235176e+01 2.539583403457e+02 6.174794307925e+01 3.750000000000e-05 
260 1 2.289645966214e-04 5.282590562088e-04 1.978179263112e-05 -1.400487102646e-02 1.661104103268e-02 -2.654287597243e-02 1.521562513093e-10 -1.296000024885e-10 1.227196624217e-09 -1.276497248940e+02 2.306332795096e+02 8.608171698192e+01 3.750000000000e-05 
413 1 3.901965061801e-04 5.958262607941e-04 5.453985380612e-05 -1.518257109311e-02 1.071970312840e-02 -3.819323564558e-02 7.270251850675e-11 3.324947148139e-11 2.569611044532e-10 -1.961232800987e+01 -5.585222065085e+01 -9.538300006920e+01 3.750000000000e-05 
107 1 2.533369040695e-04 6.251017699697e-04 2.881086712555e-05 -8.531283916512e-03 1.081493146130e-02 -1.900027482392e-02 -8.212527122871e-11 1.207380234098e-10 1.295671360625e-09 -1.954221918532e+02 3.389783053473e+02 1.205900533671e+02 3.750000000000e-05 
241 1 3.846547218198e-04 6.983012669175e-04 2.510336121726e-05 3.061943022280e-02 8.528317013135e-03 -5.185537919008e-04 -8.202832936181e-10 2.664729642416e-10 6.555044198412e-10 -8.429854462089e+01 1.780938176057e+02 -9.649247376950e+01 3.750000000000e-05 
447 1 6.275853429012e-04 7.033583088330e-04 8.270230945782e-06 1.118943739417e-02 -1.199134398562e-02 2.295114068623e-02 -3.355984057741e-10 7.531858926735e-10 9.619851381372e-10 -3.370834881594e+02 -1.646903488174e+02 -7.744942269431e+01 3.750000000000e-05 
204 1 7.174925039779e-04 6.850549079742e-04 3.789984607946e-05 5.323817676614e-03 4.491447691051e-03 4.983755560869e-02 -2.235130730690e-10 3.710986293403e-10 7.976696881194e-10 5.019401914148e+01 -1.077272928198e+02 9.403991378834e+01 3.750000000000e-05 
495 1 1.801073168153e-04 9.950039645256e-05 1.144230922144e-04 -2.888130743390e-03 2.312370686684e-02 6.569965722593e-02 -5.231577585080e-10 1.605950159050e-10 1.576298954338e-09 7.280346504881e+01 1.013771260140e+01 -2.743568519587e+01 3.750000000000e-05 
5 1 5.688596170938e-04 6.061316741591e-05 5.794245172920e-05 -2.681687916178e-02 5.598254910359e-03 2.515074986597e-02 6.323512441832e-10 1.946231386734e-10 -7.924030317336e-10 8.712680856453e+01 -2.885138088467e+02 -4.841578437107e+01 3.750000000000e-05 
239 1 6.807172133514e-04 2.111629475766e-04 6.980625750053e-05 -5.617917069233e-03 -6.279615539149e-03 8.137105280190e-03 1.675573365411e-10 1.659738727878e-10 -2.358822934209e-12 -1.490905834738e+02 5.830721037793e+01 -1.857523369892e+01 3.750000000000e-05 
240 1 3.352750569016e-04 2.702973896847e-04 8.211320147377e-05 1.348711767317e-03 4.162339069934e-03 -2.813520325376e-02 -2.326486833326e-10 -5.348841559334e-11 -2.592344626068e-10 -3.573339126114e+01 -1.251901219674e+02 -1.611831937116e+02 3.750000000000e-05 
19 1 5.338696695462e-04 3.635557716875e-04 1.038728895860e-04 -1.358147902563e-02 -2.287136896822e-02 -1.898013366071e-02 4.253807657854e-10 1.307502884392e-10 -8.868308651656e-10 1.071187788105e+01 -1.675055309825e+02 -1.231212141495e+02 3.750000000000e-05 
98 1 6.700858796703e-04 4.039985015579e-04 8.841022436259e-05 1.051872697903e-02 -3.848463874991e-04 -5.104729509267e-02 2.205707097823e-11 -2.660662370472e-10 4.955837001871e-10 -7.287168628161e+01 2.356771362336e+02 1.121140017617e+02 3.750000000000e-05 
374 1 4.573255275495e-05 4.508154041027e-04 6.081450822110e-05 6.647366888211e-03 -1.296484348373e-02 -1.157218950238e-02 -8.964692187179e-11 1.203313045274e-10 3.408602268655e-10 2.974353024142e+02 -4.617762647634e+01 7.225228775278e+01 3.750000000000e-05 
113 1 1.389540863437e-04 4.670617406716e-04 6.502377797497e-05 2.624496990442e-02 4.766257688089e-04 -2.064490038462e-02 -5.505565007777e-10 -1.617981085677e-11 4.746837846068e-10 4.279606863515e+01 2.628619201325e+02 1.252778289508e+02 3.750000000000e-05 
502 1 4.051013701455e-04 4.311027729580e-04 6.443177333415e-05 -2.763800032088e-03 1.956405996178e-02 -4.969364940605e-02 -1.328201565730e-10 -3.900677141307e-10 -1.231070875394e-10 3.307415418364e+01 3.834305446641e+01 -4.390224456843e+01 3.750000000000e-05 
616 1 4.511233739118e-04 5.018801736376e-04 6.321024878615e-05 -8.034484875995e-03 -2.863289258900e-03 -3.995224295899e-02 6.984613081388e-11 1.753662094157e-10 1.463758970010e-10 -7.521253442130e+00 -4.264923925033e+01 -1.512072427100e+01 3.750000000000e-05 
397 1 1.043728314785e-04 5.638553437418e-04 7.219847358817e-05 2.328810894635e-02 2.138392095990e-02 1.282502926224e-02 -5.667763309224e-10 4.048826718571e-11 1.677788144956e-09 2.605886474662e+02 -1.771812790567e+02 1.855247327642e+02 3.750000000000e-05 
355 1 1.526564339999e-04 6.902972509669e-04 9.964662206902e-05 1.800865203915e-03 5.588710838691e-03 3.882442900327e-02 -2.851096079523e-10 3.916306191636e-10 1.045123056682e-09 -1.392406373805e+01 -6.664924492519e+01 -4.198530488520e+01 3.750000000000e-05 
627 1 5.062425012963e-05 1.972463894228e-05 1.434041048734e-04 -1.792873975835e-02 1.629954192543e-02 5.041090224017e-02 1.180277839783e-10 1.800752360508e-10 8.906402062608e-10 1.541753035828e+02 1.099828509662e+02 -2.514513057087e+00 3.750000000000e-05 
638 1 6.092209646840e-04 3.515889977505e-05 1.195097358662e-04 -7.666068534262e-04 4.453502738535e-02 2.440921933791e-02 7.857294667136e-11 -5.223005988228e-10 -1.631300649973e-10 2.565256000840e+02 -8.635269338219e+01 1.590516910685e+02 3.750000000000e-05 
632 1 5.698438003872e-04 1.889874346775e-04 1.245384484408e-04 9.542895032237e-03 2.145853189750e-02 8.901116771421e-03 -7.163514917134e-12 -2.897149893859e-10 -8.348968368741e-10 2.086755822110e+02 -1.351133742381e+02 -3.890187252599e+00 3.750000000000e-05 
236 1 2.261986694558e-04 3.159515334163e-04 1.405889462531e-04 -7.924023536916e-03 3.498811435504e-03 -2.560178868374e-02 -3.956278447566e-11 3.964865890602e-12 4.868188443622e-10 -5.335330762526e+01 7.016117260948e+01 5.166219492667e+01 3.750000000000e-05 
171 1 3.833042497582e-04 3.157192468516e-04 1.497138791761e-04 8.154323870208e-04 4.140499216103e-03 -5.100819676773e-02 -2.850282416698e-10 -1.413175883343e-10 -7.444904744573e-10 -3.799547901488e+01 1.190955162128e+02 -3.940008906918e+01 3.750000000000e-05 
192 1 2.971985305257e-04 3.787542980072e-04 1.433413328380e-04 -4.336970986007e-03 1.780849283944e-02 -3.863186964123e-02 -1.972812264824e-10 -3.255443613012e-10 -4.526320934514e-10 -3.813047790296e+01 1.069429128884e+02 2.966696287555e+01 3.750000000000e-05 
250 1 4.356454277428e-04 4.110206670956e-04 1.598981129502e-04 -5.225727508542e-03 1.649943275909e-02 -5.812369225891e-02 -9.401301690764e-11 -3.011092563451e-10 -4.283043159780e-10 4.913315396816e+01 -8.463493196084e+01 -8.061070434246e+01 3.750000000000e-05 
321 1 4.364275261263e-04 4.895753415462e-04 1.464621884190e-04 -1.308637576494e-02 3.293160071505e-03 -5.782810591746e-02 1.704039993023e-10 5.666234655125e-11 2.202629074360e-10 5.060670945324e+01 -2.936948277992e+01 2.026874922461e+01 3.750000000000e-05 
333 1 6.133824568147e-04 5.285836165388e-04 1.608049594325e-04 3.507820545758e-03 7.178423005160e-03 -4.464916400350e-02 1.047971667425e-10 1.742675882869e-10 3.684472304303e-10 8.606654566183e+01 -1.911216304564e+01 4.927379513717e+01 3.750000000000e-05 
63 1 5.266731610078e-04 5.801670483099e-04 1.491635250168e-04 -2.294492487050e-02 -1.302422283807e-02 9.423756297297e-03 5.182046934557e-10 5.651186131057e-10 -8.647966762367e-10 4.228206518479e+02 -2.835812686164e+02 1.288872903934e+02 3.750000000000e-05 
436 1 6.679109648395e-04 6.794406195532e-04 1.160881721505e-04 -1.355821907182e-02 1.147154860017e-02 7.379779433618e-02 2.814195749381e-10 2.721789310597e-10 -5.705182441376e-10 -2.346463751685e+02 -1.274579310943e+02 -5.155514887214e+01 3.750000000000e-05 
597 1 7.068069641279e-04 9.501876011143e-06 1.870359045467e-04 -1.217091929854e-02 4.881500081007e-05 7.601121825553e-02 2.158812963992e-10 3.660362046568e-10 -1.753483639236e-10 -8.644534353284e+01 1.246444695500e+01 9.859574926470e+01 3.750000000000e-05 
398 1 1.767944820380e-04 1.043518382732e-04 2.193991514498e-04 -1.110471410866e-02 7.459581508092e-03 3.902353303956e-02 -1.740346454239e-10 2.249212038066e-10 7.458875575327e-10 -1.736534123934e+02 9.128268758856e+01 2.606603921841e+01 3.750000000000e-05 
193 1 3.586399894800e-04 1.218332650284e-04 2.196675178093e-04 -6.779824559385e-03 -9.474566197286e-04 -1.051040663649e-02 -1.428369818483e-10 2.538684499781e-10 1.848680982054e-10 -1.102360783217e+02 -1.190435738633e+01 -2.339957406346e+01 3.750000000000e-05 
76 1 2.906219665203e-04 1.948984162745e-04 1.733061875647e-04 -8.797195482085e-03 1.051169862828e-02 -1.051425607523e-02 -3.071361123609e-10 1.586037284929e-10 4.090858105706e-10 1.608560277737e+02 4.687342360765e+01 7.280654658816e+01 3.750000000000e-05 
149 1 4.366457323304e-04 2.201034841948e-04 2.008396214946e-04 -8.145744736063e-03 -7.121005250777e-03 -4.585187696219e-02 5.185961739120e-11 2.681771064795e-10 1.012263017510e-10 -7.224508244986e+01 -9.008729266498e+01 -4.299264450002e+00 3.750000000000e-05 
74 1 6.478174877374e-04 2.352357923334e-04 1.743953086695e-04 -1.539331051163e-04 1.367222341965e-03 5.312817589783e-03 6.023130955876e-11 -9.165659720332e-12 7.019751435827e-11 5.692955681742e+01 6.264734149356e+00 8.789642273591e+00 3.750000000000e-05 
78 1 5.456665210439e-04 3.760274232021e-04 1.847857447317e-04 6.225863948160e-04 -1.585816308012e-03 -6.724513404283e-02 1.964595763839e-10 -2.460618261780e-10 -1.469577315077e-10 -2.280743946615e+01 1.478648458348e+01 -2.187209126106e+01 3.750000000000e-05 
267 1 3.149706427004e-04 5.598505966961e-04 1.944709193491e-04 -1.116330619847e-02 -1.342052391822e-02 -2.836848303358e-02 5.301104469659e-14 4.618606953449e-10 -2.106445303018e-10 -6.344731161440e+01 2.248849598358e+02 1.421686779938e+02 3.750000000000e-05 
511 1 6.640194368592e-04 5.855844580474e-04 2.182441983623e-04 -6.780589068588e-03 6.167006590509e-03 1.970943493059e-02 2.237106863640e-10 1.762336580487e-10 -2.345182913824e-10 1.837233291055e+02 3.990255186867e+00 9.931814249676e+01 3.750000000000e-05 
533 1 1.393206167132e-04 6.158214530697e-04 2.127263809088e-04 -7.631255594691e-03 2.647010367854e-03 3.035820329741e-02 -1.404228898491e-11 2.830026879414e-10 4.356865257916e-10 2.726857028649e+01 -2.161064828559e+01 -4.775271741041e+01 3.750000000000e-05 
235 1 2.609447145611e-04 6.183159197926e-04 1.846442588262e-04 -4.224138609153e-03 8.598930166638e-03 1.030590819271e-02 -2.257951296186e-10 6.340494451216e-11 -2.462623865984e-11 7.686137588242e+01 -1.380169833586e+01 1.285251250740e+01 3.750000000000e-05 
564 1 1.417673339179e-04 7.019775946805e-04 1.779579046987e-04 -1.714647211680e-02 6.862445912378e-03 8.298009463236e-02 6.578859694760e-11 2.651280395700e-10 -1.780918795138e-10 3.557887161422e+01 -3.528701641059e+01 -1.600370335934e+01 3.750000000000e-05 
535 1 2.189947310185e-04 7.039308395639e-04 1.826299298860e-04 -1.602693720295e-02 7.193125734728e-03 1.727859419834e-02 -4.917512203718e-11 2.489592694663e-10 1.066066386049e-09 5.085397013209e+01 1.323419709241e+02 2.878430591820e+01 3.750000000000e-05 
10 1 4.939457630745e-04 3.351549622806e-05 2.747594630300e-04 3.693158815936e-03 5.541592305208e-03 -4.031572802099e-04 4.773815005081e-11 9.274453246748e-11 -1.293740260127e-10 1.197467217269e+01 8.844401164330e+00 2.023256503435e+01 3.750000000000e-05 
161 1 4.641187827382e-04 1.167980570452e-04 2.743842257515e-04 5.040251543218e-03 -4.920598216501e-03 -2.570793843149e-02 -6.039289871922e-11 2.001704149905e-10 -3.207184058029e-10 -9.863766011128e+01 -1.353562309795e+00 6.720999601078e+00 3.750000000000e-05 
140 1 9.344960090203e-05 1.526746677495e-04 2.526561085638e-04 -1.081461732644e-02 -1.112337380685e-03 2.260201318425e-02 -1.770957115235e-12 1.940742806593e-10 5.877668574240e-10 -1.132154060526e+02 8.281284363785e+01 -1.008193237010e+01 3.750000000000e-05 
66 1 2.696755779255e-04 2.195260441004e-04 2.417982386236e-04 -1.412584681549e-02 1.091432670759e-02 -4.992267796276e-04 -2.553604757022e-11 -2.177534743450e-11 1.420602928312e-10 -9.467615085709e+01 -5.343281653558e+01 -7.596125708896e+00 3.750000000000e-05 
288 1 4.592858386171e-04 3.084501402686e-04 2.583226928841e-04 -8.487815719395e-03 4.917790293698e-03 -4.573918629812e-02 1.483014573354e-10 2.852952357162e-11 -4.740385680130e-10 -1.879202758216e+02 -1.679332222071e+01 -1.035819843222e+02 3.750000000000e-05 
455 1 5.265428385679e-04 3.756624058699e-04 2.692535163248e-04 5.135500593819e-03 1.328822897463e-02 -6.392446468484e-02 -4.506281843727e-11 -2.031814707496e-10 -2.391050137270e-10 -4.782708598565e+01 1.225060182354e+02 -1.149529888063e+02 3.750000000000e-05 
26 1 2.872353376349e-04 4.688975683614e-04 2.649407098206e-04 8.372060409145e-03 9.718109241778e-03 -3.257890209325e-02 -2.648058185868e-10 1.311825113509e-11 -1.053798742570e-10 -8.214574120628e+01 9.747190766536e+00 4.291283401302e+01 3.750000000000e-05 
263 1 6.944439175842e-04 4.956231063901e-04 2.621395099321e-04 -3.583661690032e-03 5.711061637525e-03 2.153121182215e-03 2.377557189047e-10 9.762798658992e-11 -1.548774478903e-10 -4.322615366369e+01 6.233202345858e+01 -1.535767708601e+02 3.750000000000e-05 
207 1 4.571874760079e-04 5.776755307647e-04 2.424058522961e-04 -7.872773937512e-04 5.246952190316e-03 -4.650056358522e-02 -3.875817734423e-11 7.917334662697e-11 5.801138695458e-11 6.745374817541e+01 -3.189721914886e+01 -7.123972411014e+00 3.750000000000e-05 
274 1 5.067129675951e-04 6.372053194732e-04 2.327322503386e-04 2.399821156620e-04 1.075084061578e-02 -3.162221668369e-02 -1.330393488567e-11 4.004059098137e-11 1.034080335421e-10 5.277763357574e+01 -5.223378906128e+01 4.787971054627e+01 3.750000000000e-05 
346 1 2.848763668868e-04 6.868861972055e-04 2.440814530463e-04 -4.283672427191e-03 2.916964579618e-03 1.509077840732e-02 -2.217623921656e-10 2.034998675646e-10 2.582923763267e-10 4.446447944140e+01 5.629006952861e+01 3.262020738641e+01 3.750000000000e-05 
612 1 3.734408219885e-05 5.167532796192e-05 3.284922416357e-04 8.311782426052e-03 1.702120344008e-02 6.495767310517e-02 -3.833729467976e-10 -1.492917024262e-10 7.223969183761e-10 -3.983807142186e+01 8.859496740353e+00 -1.319005021786e+02 3.750000000000e-05 
232 1 3.741617461486e-04 6.114724105617e-05 3.042507842793e-04 2.026795999821e-03 1.572277594565e-02 -2.107135515893e-03 -1.185460926743e-10 -2.351882172939e-10 -6.094518614760e-10 6.304403639113e+01 -5.345532181559e+01 -1.167388908959e+01 3.750000000000e-05 
571 1 6.563103587617e-04 1.195671750344e-04 2.893122725099e-04 -1.983121794292e-03 1.240517857329e-02 6.285787411871e-02 3.987050401813e-10 -1.625213641377e-10 5.886846097930e-12 -3.071768061737e+02 -1.517790696265e+02 -1.612753148080e+01 3.750000000000e-05 
625 1 4.928662395355e-05 1.341977946854e-04 3.392365250010e-04 2.059327638951e-02 2.744614819279e-02 5.323383474563e-02 -6.949921998512e-10 -4.129425830172e-10 8.022045359585e-10 -4.681722054818e+01 -1.412117950636e+02 -8.361759663585e+01 3.750000000000e-05 
72 1 4.556075998925e-04 1.884028569079e-04 3.281265058053e-04 -8.789342712838e-04 6.710347025428e-03 -2.065152683138e-02 8.266079957363e-11 -8.526572363773e-11 -7.273053831067e-10 -1.429770365802e+01 1.379210107778e+01 4.526046759141e+01 3.750000000000e-05 
663 1 7.121311572228e-04 2.621133977292e-04 3.092411227761e-04 2.422980149540e-03 -1.223374437059e-02 -1.496399310394e-02 9.683946469078e-11 2.442000331074e-10 5.922198111581e-10 -6.796483833674e+01 1.893816197974e+02 1.915624824283e+01 3.750000000000e-05 
209 1 4.523993895142e-04 4.192337729954e-04 3.099367319101e-04 1.222910658508e-02 1.162493791196e-02 -5.555999625696e-02 -3.211617567692e-10 -9.322658996341e-12 -4.507433435236e-10 -4.592961060114e+01 5.040967758301e+01 -9.185450935410e+00 3.750000000000e-05 
414 1 5.491653551229e-04 3.729471580917e-04 3.431926432865e-04 6.243966943685e-03 5.806461310631e-03 -5.640158679653e-02 -3.554170058581e-11 -1.034633755834e-10 -8.519866687277e-10 2.467772681857e+01 -8.795514311595e+01 -2.800780753905e+01 3.750000000000e-05 
655 1 4.369929957845e-04 5.266806128995e-04 3.385240809564e-04 -6.916088531966e-03 1.169384134162e-02 -4.902211226382e-02 -8.002753468027e-11 -1.266463275236e-10 -9.380718786737e-11 6.038137520569e+01 2.425167829441e+00 4.137548249386e+01 3.750000000000e-05 
367 1 1.721071426143e-05 6.812704404889e-04 3.041192424546e-04 -4.106036760453e-03 6.696847375152e-03 8.813730952820e-02 1.951283923860e-10 1.021424407165e-10 -4.596680186414e-10 -1.706932162396e+01 -1.492101365118e+02 4.082854354996e+01 3.750000000000e-05 
120 1 3.139464211893e-04 7.028843600918e-04 3.389538951327e-04 -1.471656853529e-02 -2.333726526934e-03 -4.274018220799e-03 6.251673335477e-12 1.809671349389e-10 5.968945216308e-10 1.712417039059e+02 -8.366161675194e+01 -4.779194705031e+01 3.750000000000e-05 
296 1 4.032240558193e-04 6.625706328974e-04 3.114330902340e-04 5.387435754747e-03 1.523990514419e-02 -8.320214608913e-03 -3.406564977586e-10 -1.624980931241e-10 -1.820546122940e-10 -8.573740873407e+01 8.242312069933e+01 1.537804985290e+02 3.750000000000e-05 
510 1 6.312050479866e-04 6.822488117115e-04 3.370285738068e-04 -1.364283977034e-02 5.910227498419e-03 4.507192010595e-02 3.432170306406e-10 2.092406694628e-10 3.589781321213e-12 1.943750578177e+02 -2.907891741244e+02 -2.709240352624e+01 3.750000000000e-05 
68 1 4.224059037696e-04 5.612772254793e-05 3.670579467593e-04 1.387620184013e-03 9.250733080049e-04 -6.220787330380e-03 -2.471883742528e-11 -3.117428061545e-11 -6.295897078013e-10 1.638728293816e+01 4.152374212033e+01 6.248302368690e+01 3.750000000000e-05 
40 1 3.810720764894e-04 2.901734046626e-04 3.711369671248e-04 1.215448801025e-02 7.955439677807e-03 -4.059617998614e-02 -3.227410071590e-10 1.358699704260e-10 -5.709252330363e-10 3.233588472002e+01 -5.228285365427e+01 1.414303495410e+01 3.750000000000e-05 
203 1 1.506484479448e-04 3.000903250146e-04 3.721175911767e-04 5.197465070488e-03 7.846875616835e-03 1.068845486373e-02 1.100667019350e-10 1.569861968477e-10 -1.845234723667e-10 -3.514979778352e+02 1.998679555152e+02 -4.737475889769e+01 3.750000000000e-05 
182 1 2.342155901663e-04 3.076539409923e-04 4.016972266921e-04 -4.974573917027e-03 1.413140154207e-02 -1.040066836592e-02 5.874205562918e-11 -4.713821424947e-11 8.034988566085e-11 -1.328305388236e+02 5.202423048268e+01 -9.239799480327e+00 3.750000000000e-05 
462 1 3.985606217284e-04 4.138499172712e-04 3.687932757516e-04 6.821261400356e-03 9.530491026916e-04 -6.455958353585e-02 -2.913385841700e-10 3.314381671089e-10 -5.375621311269e-10 1.505105666414e+02 1.817968120018e+01 6.756939779680e+00 3.750000000000e-05 
392 1 3.751850841766e-05 4.515699843637e-04 3.766100297988e-04 1.317565912604e-02 8.300006212045e-03 -1.011457525748e-02 8.901080277543e-11 1.525854405090e-10 6.787970363472e-11 1.920567916308e+02 1.243893187475e+02 4.356071793815e+01 3.750000000000e-05 
304 1 1.381506195885e-04 5.195889671154e-04 3.891267098475e-04 1.408125838635e-02 1.170894546515e-02 -2.541497654914e-03 -3.739438061313e-11 3.208781950978e-12 8.217670576491e-11 -1.159581440438e+02 -3.910798570536e+01 -6.582039576055e+00 3.750000000000e-05 
55 1 3.085312127216e-04 5.133076109155e-04 3.749879363190e-04 9.204863265825e-03 9.443968969287e-03 -2.575649264194e-02 -2.948438851032e-10 -7.161084020132e-15 -4.592982641021e-11 1.122647835567e+01 -3.490355785243e+01 1.525039863212e+01 3.750000000000e-05 
310 1 6.375484343928e-04 4.851865538288e-04 3.687817428913e-04 5.363149129159e-03 4.641895382267e-03 -3.332754486472e-02 1.048710233149e-10 1.564620842645e-10 1.088287136935e-10 -3.021844889929e+01 2.396820109616e+02 1.736774238672e+01 3.750000000000e-05 
661 1 1.408683015555e-04 7.005895015233e-04 4.011615304779e-04 -8.797563092459e-04 3.812809640884e-03 3.941236728778e-02 7.364320009671e-11 -3.508410139764e-12 1.733366677712e-10 1.108484928635e+02 3.633968089488e+02 -5.946015145970e+01 3.750000000000e-05 
390 1 6.894363464590e-04 7.032559121550e-04 3.805648464769e-04 -2.670240031137e-02 1.139440679799e-04 6.746128529436e-02 6.597525681198e-10 1.863782329338e-10 6.452384511052e-11 -8.616241515463e+01 -1.568837725834e+02 -5.244802960190e+01 3.750000000000e-05 
139 1 3.572917782999e-04 1.157241617855e-04 4.154798097045e-04 2.728143797590e-03 5.871031749882e-03 -8.068331692146e-03 -3.066955860657e-11 -1.794121085308e-10 -7.164285933403e-10 -5.567872048920e+01 1.220846595872e+02 6.819269388046e+01 3.750000000000e-05 
168 1 7.390621008825e-05 3.407755928836e-04 4.485922631750e-04 2.387589738042e-02 1.812227652993e-03 2.097932958551e-04 -1.185439717523e-10 1.990182886050e-10 1.673155222733e-10 -1.560975454755e+02 -5.121988666465e+01 1.056028519926e+02 3.750000000000e-05 
37 1 3.252587156376e-04 3.051917301441e-04 4.330910221468e-04 -9.694811468754e-03 9.038750955342e-03 -3.905109787167e-02 1.092538106216e-10 9.119139070812e-11 -4.958396411039e-10 -1.300643048740e+02 -2.850292030939e+01 4.605147086010e+00 3.750000000000e-05 
327 1 7.093083202723e-04 3.917706757706e-04 4.591922707055e-04 1.279881242042e-02 1.300651276501e-02 -8.660381027370e-03 8.792077979166e-11 -5.829278824877e-11 -1.790461209489e-11 5.423870100502e+01 -2.360583082388e+02 -1.091541077333e+00 3.750000000000e-05 
653 1 4.963225870292e-04 4.383005416756e-04 4.512081921351e-04 5.096251648756e-03 5.728884412042e-03 -6.699965885338e-02 -1.537090076366e-10 3.284351303126e-11 -7.929672758911e-11 6.422407400627e+01 -5.940132525090e+01 3.263964570615e+01 3.750000000000e-05 
91 1 7.089230532321e-05 5.899875740891e-04 4.365450293822e-04 2.463071082639e-02 -1.475000665110e-02 2.657330847655e-02 -1.449453632059e-10 3.986163990243e-10 -4.409306300225e-11 5.556858092624e+02 2.970297432928e+02 1.514736331272e+02 3.750000000000e-05 
231 1 3.807805990245e-04 6.498614697896e-04 4.460420956214e-04 6.454444993540e-03 1.109711507216e-02 -2.309335975147e-02 -2.068380844481e-10 -1.698080010435e-10 3.308041324278e-10 -2.124621221043e+01 6.145183060533e+01 2.983806839783e+01 3.750000000000e-05 
542 1 5.161760550521e-05 6.979317730210e-04 4.067746058691e-04 -9.627951441556e-03 3.968398190941e-03 6.940934193305e-02 3.874444285027e-10 6.559749559389e-12 -3.416013291416e-11 -2.608725534730e+01 1.454178938845e+02 9.121795614301e+01 3.750000000000e-05 
219 1 4.968514458421e-04 6.677525185964e-04 4.176831528851e-04 -2.222912745369e-04 7.855085272954e-03 -3.014895582880e-02 2.077038751285e-11 -4.559725157342e-11 4.708611066466e-10 5.138647003082e+01 1.002358435396e+01 7.030144943148e+01 3.750000000000e-05 
666 1 5.809048936142e-04 4.181175808372e-05 5.040579961541e-04 2.141070686489e-03 -5.841576375585e-03 4.837303200242e-02 2.001327723618e-10 8.050603890312e-11 -8.750319266482e-11 -9.505216153950e+01 -8.419597116888e+00 1.871451296156e+01 3.750000000000e-05 
432 1 4.668748726717e-04 2.158584559402e-04 5.001723939129e-04 -9.917729213481e-03 -4.902242618434e-04 -2.701494384077e-02 2.961565394369e-10 8.884527622549e-11 -7.477596446112e-10 3.154779824400e+01 -1.361550263194e+01 -6.303684259142e+01 3.750000000000e-05 
503 1 5.272804028532e-04 3.353302382990e-04 4.743412642952e-04 3.783023125955e-04 2.316743824844e-03 -6.523834236778e-02 1.398036813048e-10 1.088227531538e-10 2.056945844484e-10 -6.813858184076e+01 3.668296281121e+01 1.926417674833e+01 3.750000000000e-05 
93 1 6.608688520406e-04 3.222100294595e-04 4.702805526100e-04 -9.891638284725e-03 -1.772908976415e-02 -3.761560240815e-02 4.589455039797e-10 4.399573912695e-10 4.433298429619e-10 1.805473736010e+02 -1.340108806832e+02 -1.599613944146e+01 3.750000000000e-05 
558 1 4.397824191776e-04 3.826006182249e-04 4.812235514091e-04 -5.621858228091e-03 8.563506821823e-03 -5.508145244658e-02 7.567834449256e-11 -1.094604666332e-12 -1.775863195090e-11 -2.301135483137e+02 1.032920947682e+02 -1.225401569449e+02 3.750000000000e-05 
664 1 4.942613191409e-04 5.388326973876e-04 5.173091899973e-04 -7.882741138863e-03 2.233227291954e-02 -3.647642898515e-02 9.221935068897e-11 -3.320244472506e-10 -2.270679552603e-10 1.376885445395e+02 -1.237051407764e+02 5.743952803189e+00 3.750000000000e-05 
156 1 5.749325800018e-04 5.673827057493e-04 5.171298701505e-04 -1.046343866388e-03 2.049162219908e-03 -3.018206187074e-02 1.234463922147e-10 -3.479195199481e-11 3.007661010603e-10 1.366022819613e+02 -2.100661715741e+02 -1.263066831168e+02 3.750000000000e-05 
301 1 4.124707059540e-04 6.081286047652e-04 5.145925510345e-04 2.016980566810e-04 -2.078271166943e-03 -2.771060007750e-02 -2.304993300254e-10 8.121669996865e-11 3.314532150621e-10 2.618735455520e+02 1.043763938908e+02 3.327251131956e+01 3.750000000000e-05 
665 1 2.933540980414e-06 7.134023815981e-04 4.892032588684e-04 -4.455908501704e-03 2.299212146354e-02 9.281635721732e-02 4.543474444735e-10 -3.940498915436e-10 -9.121991714978e-11 5.254457230385e+01 5.830517290073e+01 9.767065130820e+01 3.750000000000e-05 
622 1 6.035222731215e-04 6.712923295040e-04 4.794624519838e-04 -2.774593431137e-02 1.550542497327e-02 1.550219775570e-04 6.760916395011e-10 -2.539070520732e-10 6.343870721149e-10 -5.939686139101e+01 2.475391884223e+02 3.893939877721e+01 3.750000000000e-05 
350 1 9.018144053862e-05 3.217022109254e-05 5.367783130374e-04 3.451910614893e-03 1.137902900512e-02 5.666108756153e-02 2.974686241568e-10 -4.939462943008e-10 6.580529396183e-10 1.508319829018e+02 4.642437210336e+01 7.647527342965e+01 3.750000000000e-05 
251 1 3.307669054369e-04 1.575612527169e-05 5.239242779877e-04 4.603013580341e-03 7.721438804648e-04 1.570515533046e-02 -1.292664003707e-10 -8.374395773112e-11 -2.819869196724e-10 1.157811212545e+02 -3.798761296046e+00 1.268932344807e+01 3.750000000000e-05 
52 1 3.626385531716e-04 1.106704177124e-04 5.453978192496e-04 3.247630405842e-03 1.530382078576e-03 -3.728055524382e-03 -1.747620511597e-10 -7.628912600930e-11 -1.315327951734e-09 -9.985450737959e+01 -4.131364397059e+01 5.137804451381e+01 3.750000000000e-05 
650 1 4.470651948537e-04 2.962447634357e-04 5.279730257777e-04 6.810130610586e-03 -1.485927797391e-03 -6.451094905348e-02 -1.293713356664e-11 2.443727058901e-10 -2.274838906304e-10 3.831002493161e+01 -9.263184572176e+00 -2.802916314166e+01 3.750000000000e-05 
165 1 3.355884679749e-04 3.875173397224e-04 5.189522151488e-04 -1.377854348952e-02 1.551201671704e-02 -5.516139478161e-02 2.787433131131e-10 1.405611262349e-11 -7.663643359467e-11 1.192146246581e+02 -5.485225787182e+01 1.357169173798e+02 3.750000000000e-05 
668 1 5.043255203562e-04 4.107257453686e-04 5.419637262531e-04 4.200520499239e-03 1.138921086239e-02 -6.955517295097e-02 -9.110607000522e-11 -2.079319368958e-11 -1.750715858540e-10 8.557171735193e+00 -1.676232170036e+01 3.175570302766e+01 3.750000000000e-05 